                               Psi4 1.3.2 release

  ==> Input File <==

--------------------------------------------------------------------------
# helium.molden with cc-pVDZ basis

molecule helium {

    symmetry C1     # point group
    units    au     # units (ang/au)

    no_reorient     # prevent automatic rotation to canonical orientation (for testing)
    no_com          # prevent automatic shift to centre

    He   0.000000000   0.000000000  0.00000000

}

set {

    basis cc-pVDZ
    reference       rhf
    maxiter         100
}

[E, wfn] = energy('scf', return_wfn=True)

molden(wfn, 'helium.molden')

--------------------------------------------------------------------------

    Molecular point group: c1
    Geometry (in Bohr), charge = 0, multiplicity = 1:

       Center              X                  Y                   Z               Mass
    ------------   -----------------  -----------------  -----------------  -----------------
         HE           0.000000000000     0.000000000000     0.000000000000     4.002603254130

  Charge       = 0
  Multiplicity = 1
  Basis Set: CC-PVDZ
    Blend: CC-PVDZ
  Basis Set: (CC-PVDZ AUX)
    Blend: DEF2-QZVPP-JKFIT

    Orbital Energies [Eh]
    ---------------------

    Doubly Occupied:

       1A     -0.914163

  @DF-RHF Final Energy:    -2.85518839872681

   => Energetics <=

    Nuclear Repulsion Energy =              0.0000000000000000
    One-Electron Energy =                  -3.8820515783288281
    Two-Electron Energy =                   1.0268631796020142
    Total Energy =                         -2.8551883987268138

  Dipole Moment: [D]
     X:    -0.0000      Y:     0.0000      Z:    -0.0000     Total:     0.0000

*** Psi4 exiting successfully. Buy a developer a beer!
