                               Psi4 1.3.2 release

  ==> Input File <==

--------------------------------------------------------------------------
memory 600 mb

molecule h2 {
  H
  H 1 0.74
}

set basis cc-pVDZ

[E, wfn] = energy('scf', return_wfn=True)
molden(wfn, 'h2_test.molden')
--------------------------------------------------------------------------

    Molecular point group: d2h

    Geometry (in Angstrom), charge = 0, multiplicity = 1:

       Center              X                  Y                   Z               Mass
    ------------   -----------------  -----------------  -----------------  -----------------
         H            0.000000000000     0.000000000000    -0.370000000000     1.007825032230
         H            0.000000000000     0.000000000000     0.370000000000     1.007825032230

  Charge       = 0
  Multiplicity = 1
  Basis Set: CC-PVDZ
    Blend: CC-PVDZ
  Basis Set: (CC-PVDZ AUX)
    Blend: CC-PVDZ-JKFIT

    Orbital Energies [Eh]
    ---------------------

    Doubly Occupied:

       1Ag    -0.592411

  @DF-RHF Final Energy:    -1.12870103314088

   => Energetics <=

    Nuclear Repulsion Energy =              0.7151043387432436
    One-Electron Energy =                  -2.5027877916272554
    Two-Electron Energy =                   0.6589824197431318
    Total Energy =                         -1.1287010331408800

  Dipole Moment: [D]
     X:     0.0000      Y:     0.0000      Z:     0.0000     Total:     0.0000

*** Psi4 exiting successfully. Buy a developer a beer!
